   1    4
1 1
     3.305567027695051     0.000000000000000    -0.000000000000000
    -0.000000000000000     3.305567027695049     0.000000000000000
     0.000000000000000     0.000000000000000     3.305567027695051
1 2
     0.219340498059001    -0.000000000000000     0.000000000000000
    -0.000000000000000    -1.762453762877015    -0.000000000000000
     0.000000000000000    -0.000000000000000    -1.762453762877015
1 3
    -1.762453762877015    -0.000000000000000     0.000000000000000
     0.000000000000000     0.219340498059001    -0.000000000000000
    -0.000000000000000     0.000000000000000    -1.762453762877015
1 4
    -1.762453762877016    -0.000000000000000    -0.000000000000000
    -0.000000000000000    -1.762453762877014     0.000000000000000
    -0.000000000000000    -0.000000000000000     0.219340498059001